s 0.100000000 _23_ AGT  --- 0 cbr 1000 [0 0 0 0] ------- [23:1 11:1 32 0] [0] 0 0
r 0.100000000 _23_ RTR  --- 0 cbr 1000 [0 0 0 0] ------- [23:1 11:1 32 0] [0] 0 0
s 0.100000000 _23_ RTR  --- 0 AODV 48 [0 0 0 0] ------- [23:255 -1:255 30 0] [0x2 1 1 [11 0] [23 4]] (REQUEST)
r 0.100988201 _64_ RTR  --- 0 AODV 48 [0 ffffffff 17 800] ------- [23:255 -1:255 30 0] [0x2 1 1 [11 0] [23 4]] (REQUEST)
r 0.100988205 _4_ RTR  --- 0 AODV 48 [0 ffffffff 17 800] ------- [23:255 -1:255 30 0] [0x2 1 1 [11 0] [23 4]] (REQUEST)
r 0.100988357 _44_ RTR  --- 0 AODV 48 [0 ffffffff 17 800] ------- [23:255 -1:255 30 0] [0x2 1 1 [11 0] [23 4]] (REQUEST)
r 0.100988454 _34_ RTR  --- 0 AODV 48 [0 ffffffff 17 800] ------- [23:255 -1:255 30 0] [0x2 1 1 [11 0] [23 4]] (REQUEST)
r 0.100988496 _48_ RTR  --- 0 AODV 48 [0 ffffffff 17 800] ------- [23:255 -1:255 30 0] [0x2 1 1 [11 0] [23 4]] (REQUEST)
r 0.100988571 _11_ RTR  --- 0 AODV 48 [0 ffffffff 17 800] ------- [23:255 -1:255 30 0] [0x2 1 1 [11 0] [23 4]] (REQUEST)
s 0.100988571 _11_ RTR  --- 0 AODV 44 [0 0 0 0] ------- [11:255 23:255 30 23] [0x4 1 [11 4] 10.000000] (REPLY)
r 0.100988587 _55_ RTR  --- 0 AODV 48 [0 ffffffff 17 800] ------- [23:255 -1:255 30 0] [0x2 1 1 [11 0] [23 4]] (REQUEST)
r 0.100988630 _10_ RTR  --- 0 AODV 48 [0 ffffffff 17 800] ------- [23:255 -1:255 30 0] [0x2 1 1 [11 0] [23 4]] (REQUEST)
r 0.100988642 _17_ RTR  --- 0 AODV 48 [0 ffffffff 17 800] ------- [23:255 -1:255 30 0] [0x2 1 1 [11 0] [23 4]] (REQUEST)
r 0.100988650 _15_ RTR  --- 0 AODV 48 [0 ffffffff 17 800] ------- [23:255 -1:255 30 0] [0x2 1 1 [11 0] [23 4]] (REQUEST)
r 0.100988652 _65_ RTR  --- 0 AODV 48 [0 ffffffff 17 800] ------- [23:255 -1:255 30 0] [0x2 1 1 [11 0] [23 4]] (REQUEST)
r 0.100988733 _2_ RTR  --- 0 AODV 48 [0 ffffffff 17 800] ------- [23:255 -1:255 30 0] [0x2 1 1 [11 0] [23 4]] (REQUEST)
r 0.100988749 _8_ RTR  --- 0 AODV 48 [0 ffffffff 17 800] ------- [23:255 -1:255 30 0] [0x2 1 1 [11 0] [23 4]] (REQUEST)
r 0.100988793 _28_ RTR  --- 0 AODV 48 [0 ffffffff 17 800] ------- [23:255 -1:255 30 0] [0x2 1 1 [11 0] [23 4]] (REQUEST)
r 0.100988903 _31_ RTR  --- 0 AODV 48 [0 ffffffff 17 800] ------- [23:255 -1:255 30 0] [0x2 1 1 [11 0] [23 4]] (REQUEST)
r 0.100988946 _3_ RTR  --- 0 AODV 48 [0 ffffffff 17 800] ------- [23:255 -1:255 30 0] [0x2 1 1 [11 0] [23 4]] (REQUEST)
r 0.100988990 _1_ RTR  --- 0 AODV 48 [0 ffffffff 17 800] ------- [23:255 -1:255 30 0] [0x2 1 1 [11 0] [23 4]] (REQUEST)
r 0.100989024 _36_ RTR  --- 0 AODV 48 [0 ffffffff 17 800] ------- [23:255 -1:255 30 0] [0x2 1 1 [11 0] [23 4]] (REQUEST)
r 0.100989043 _27_ RTR  --- 0 AODV 48 [0 ffffffff 17 800] ------- [23:255 -1:255 30 0] [0x2 1 1 [11 0] [23 4]] (REQUEST)
r 0.100989086 _18_ RTR  --- 0 AODV 48 [0 ffffffff 17 800] ------- [23:255 -1:255 30 0] [0x2 1 1 [11 0] [23 4]] (REQUEST)
r 0.100989088 _6_ RTR  --- 0 AODV 48 [0 ffffffff 17 800] ------- [23:255 -1:255 30 0] [0x2 1 1 [11 0] [23 4]] (REQUEST)
r 0.100989105 _5_ RTR  --- 0 AODV 48 [0 ffffffff 17 800] ------- [23:255 -1:255 30 0] [0x2 1 1 [11 0] [23 4]] (REQUEST)
r 0.100989124 _62_ RTR  --- 0 AODV 48 [0 ffffffff 17 800] ------- [23:255 -1:255 30 0] [0x2 1 1 [11 0] [23 4]] (REQUEST)
r 0.100989135 _53_ RTR  --- 0 AODV 48 [0 ffffffff 17 800] ------- [23:255 -1:255 30 0] [0x2 1 1 [11 0] [23 4]] (REQUEST)
r 0.100989174 _37_ RTR  --- 0 AODV 48 [0 ffffffff 17 800] ------- [23:255 -1:255 30 0] [0x2 1 1 [11 0] [23 4]] (REQUEST)
r 0.100989193 _16_ RTR  --- 0 AODV 48 [0 ffffffff 17 800] ------- [23:255 -1:255 30 0] [0x2 1 1 [11 0] [23 4]] (REQUEST)
r 0.100989224 _22_ RTR  --- 0 AODV 48 [0 ffffffff 17 800] ------- [23:255 -1:255 30 0] [0x2 1 1 [11 0] [23 4]] (REQUEST)
r 0.100989228 _33_ RTR  --- 0 AODV 48 [0 ffffffff 17 800] ------- [23:255 -1:255 30 0] [0x2 1 1 [11 0] [23 4]] (REQUEST)
r 0.100989228 _38_ RTR  --- 0 AODV 48 [0 ffffffff 17 800] ------- [23:255 -1:255 30 0] [0x2 1 1 [11 0] [23 4]] (REQUEST)
r 0.100989268 _39_ RTR  --- 0 AODV 48 [0 ffffffff 17 800] ------- [23:255 -1:255 30 0] [0x2 1 1 [11 0] [23 4]] (REQUEST)
r 0.100989299 _7_ RTR  --- 0 AODV 48 [0 ffffffff 17 800] ------- [23:255 -1:255 30 0] [0x2 1 1 [11 0] [23 4]] (REQUEST)
r 0.100989306 _14_ RTR  --- 0 AODV 48 [0 ffffffff 17 800] ------- [23:255 -1:255 30 0] [0x2 1 1 [11 0] [23 4]] (REQUEST)
r 0.100989316 _67_ RTR  --- 0 AODV 48 [0 ffffffff 17 800] ------- [23:255 -1:255 30 0] [0x2 1 1 [11 0] [23 4]] (REQUEST)
r 0.100989322 _20_ RTR  --- 0 AODV 48 [0 ffffffff 17 800] ------- [23:255 -1:255 30 0] [0x2 1 1 [11 0] [23 4]] (REQUEST)
r 0.100989343 _52_ RTR  --- 0 AODV 48 [0 ffffffff 17 800] ------- [23:255 -1:255 30 0] [0x2 1 1 [11 0] [23 4]] (REQUEST)
r 0.100989382 _61_ RTR  --- 0 AODV 48 [0 ffffffff 17 800] ------- [23:255 -1:255 30 0] [0x2 1 1 [11 0] [23 4]] (REQUEST)
r 0.100989399 _43_ RTR  --- 0 AODV 48 [0 ffffffff 17 800] ------- [23:255 -1:255 30 0] [0x2 1 1 [11 0] [23 4]] (REQUEST)
r 0.100989427 _25_ RTR  --- 0 AODV 48 [0 ffffffff 17 800] ------- [23:255 -1:255 30 0] [0x2 1 1 [11 0] [23 4]] (REQUEST)
r 0.100989479 _13_ RTR  --- 0 AODV 48 [0 ffffffff 17 800] ------- [23:255 -1:255 30 0] [0x2 1 1 [11 0] [23 4]] (REQUEST)
r 0.100989482 _45_ RTR  --- 0 AODV 48 [0 ffffffff 17 800] ------- [23:255 -1:255 30 0] [0x2 1 1 [11 0] [23 4]] (REQUEST)
r 0.100989573 _35_ RTR  --- 0 AODV 48 [0 ffffffff 17 800] ------- [23:255 -1:255 30 0] [0x2 1 1 [11 0] [23 4]] (REQUEST)
r 0.100989615 _9_ RTR  --- 0 AODV 48 [0 ffffffff 17 800] ------- [23:255 -1:255 30 0] [0x2 1 1 [11 0] [23 4]] (REQUEST)
r 0.100989649 _46_ RTR  --- 0 AODV 48 [0 ffffffff 17 800] ------- [23:255 -1:255 30 0] [0x2 1 1 [11 0] [23 4]] (REQUEST)
s 0.101097732 _46_ RTR  --- 0 AODV 48 [0 ffffffff 17 800] ------- [46:255 -1:255 29 0] [0x2 2 1 [11 0] [23 4]] (REQUEST)
s 0.101416679 _2_ RTR  --- 0 AODV 48 [0 ffffffff 17 800] ------- [2:255 -1:255 29 0] [0x2 2 1 [11 0] [23 4]] (REQUEST)
s 0.101573641 _9_ RTR  --- 0 AODV 48 [0 ffffffff 17 800] ------- [9:255 -1:255 29 0] [0x2 2 1 [11 0] [23 4]] (REQUEST)
s 0.101869428 _64_ RTR  --- 0 AODV 48 [0 ffffffff 17 800] ------- [64:255 -1:255 29 0] [0x2 2 1 [11 0] [23 4]] (REQUEST)
s 0.101930413 _36_ RTR  --- 0 AODV 48 [0 ffffffff 17 800] ------- [36:255 -1:255 29 0] [0x2 2 1 [11 0] [23 4]] (REQUEST)
s 0.102081328 _52_ RTR  --- 0 AODV 48 [0 ffffffff 17 800] ------- [52:255 -1:255 29 0] [0x2 2 1 [11 0] [23 4]] (REQUEST)
s 0.102109886 _35_ RTR  --- 0 AODV 48 [0 ffffffff 17 800] ------- [35:255 -1:255 29 0] [0x2 2 1 [11 0] [23 4]] (REQUEST)
s 0.102126876 _28_ RTR  --- 0 AODV 48 [0 ffffffff 17 800] ------- [28:255 -1:255 29 0] [0x2 2 1 [11 0] [23 4]] (REQUEST)
s 0.102630106 _65_ RTR  --- 0 AODV 48 [0 ffffffff 17 800] ------- [65:255 -1:255 29 0] [0x2 2 1 [11 0] [23 4]] (REQUEST)
r 0.102701981 _56_ RTR  --- 0 AODV 48 [0 ffffffff 9 800] ------- [9:255 -1:255 29 0] [0x2 2 1 [11 0] [23 4]] (REQUEST)
r 0.102702225 _63_ RTR  --- 0 AODV 48 [0 ffffffff 9 800] ------- [9:255 -1:255 29 0] [0x2 2 1 [11 0] [23 4]] (REQUEST)
r 0.102702233 _21_ RTR  --- 0 AODV 48 [0 ffffffff 9 800] ------- [9:255 -1:255 29 0] [0x2 2 1 [11 0] [23 4]] (REQUEST)
r 0.102702260 _60_ RTR  --- 0 AODV 48 [0 ffffffff 9 800] ------- [9:255 -1:255 29 0] [0x2 2 1 [11 0] [23 4]] (REQUEST)
r 0.102702279 _66_ RTR  --- 0 AODV 48 [0 ffffffff 9 800] ------- [9:255 -1:255 29 0] [0x2 2 1 [11 0] [23 4]] (REQUEST)
r 0.102702355 _54_ RTR  --- 0 AODV 48 [0 ffffffff 9 800] ------- [9:255 -1:255 29 0] [0x2 2 1 [11 0] [23 4]] (REQUEST)
r 0.102702570 _0_ RTR  --- 0 AODV 48 [0 ffffffff 9 800] ------- [9:255 -1:255 29 0] [0x2 2 1 [11 0] [23 4]] (REQUEST)
r 0.102702621 _32_ RTR  --- 0 AODV 48 [0 ffffffff 9 800] ------- [9:255 -1:255 29 0] [0x2 2 1 [11 0] [23 4]] (REQUEST)
r 0.102702894 _57_ RTR  --- 0 AODV 48 [0 ffffffff 9 800] ------- [9:255 -1:255 29 0] [0x2 2 1 [11 0] [23 4]] (REQUEST)
r 0.102703030 _50_ RTR  --- 0 AODV 48 [0 ffffffff 9 800] ------- [9:255 -1:255 29 0] [0x2 2 1 [11 0] [23 4]] (REQUEST)
r 0.102703062 _41_ RTR  --- 0 AODV 48 [0 ffffffff 9 800] ------- [9:255 -1:255 29 0] [0x2 2 1 [11 0] [23 4]] (REQUEST)
r 0.102703111 _29_ RTR  --- 0 AODV 48 [0 ffffffff 9 800] ------- [9:255 -1:255 29 0] [0x2 2 1 [11 0] [23 4]] (REQUEST)
r 0.102703177 _47_ RTR  --- 0 AODV 48 [0 ffffffff 9 800] ------- [9:255 -1:255 29 0] [0x2 2 1 [11 0] [23 4]] (REQUEST)
r 0.102703181 _24_ RTR  --- 0 AODV 48 [0 ffffffff 9 800] ------- [9:255 -1:255 29 0] [0x2 2 1 [11 0] [23 4]] (REQUEST)
r 0.102703198 _58_ RTR  --- 0 AODV 48 [0 ffffffff 9 800] ------- [9:255 -1:255 29 0] [0x2 2 1 [11 0] [23 4]] (REQUEST)
s 0.102737042 _1_ RTR  --- 0 AODV 48 [0 ffffffff 17 800] ------- [1:255 -1:255 29 0] [0x2 2 1 [11 0] [23 4]] (REQUEST)
s 0.102863052 _43_ RTR  --- 0 AODV 48 [0 ffffffff 17 800] ------- [43:255 -1:255 29 0] [0x2 2 1 [11 0] [23 4]] (REQUEST)
s 0.103160823 _33_ RTR  --- 0 AODV 48 [0 ffffffff 17 800] ------- [33:255 -1:255 29 0] [0x2 2 1 [11 0] [23 4]] (REQUEST)
s 0.103204445 _29_ RTR  --- 0 AODV 48 [0 ffffffff 9 800] ------- [29:255 -1:255 28 0] [0x2 3 1 [11 0] [23 4]] (REQUEST)
r 0.103275089 _4_ RTR  --- 0 AODV 48 [0 ffffffff 40 800] ------- [64:255 -1:255 29 0] [0x2 2 1 [11 0] [23 4]] (REQUEST)
r 0.103275127 _17_ RTR  --- 0 AODV 48 [0 ffffffff 2 800] ------- [2:255 -1:255 29 0] [0x2 2 1 [11 0] [23 4]] (REQUEST)
r 0.103275144 _23_ RTR  --- 0 AODV 48 [0 ffffffff 40 800] ------- [64:255 -1:255 29 0] [0x2 2 1 [11 0] [23 4]] (REQUEST)
r 0.103275205 _44_ RTR  --- 0 AODV 48 [0 ffffffff 40 800] ------- [64:255 -1:255 29 0] [0x2 2 1 [11 0] [23 4]] (REQUEST)
r 0.103275347 _37_ RTR  --- 0 AODV 48 [0 ffffffff 2 800] ------- [2:255 -1:255 29 0] [0x2 2 1 [11 0] [23 4]] (REQUEST)
r 0.103276547 _45_ RTR  --- 0 AODV 48 [0 ffffffff 40 800] ------- [64:255 -1:255 29 0] [0x2 2 1 [11 0] [23 4]] (REQUEST)
r 0.103276569 _19_ RTR  --- 0 AODV 48 [0 ffffffff 40 800] ------- [64:255 -1:255 29 0] [0x2 2 1 [11 0] [23 4]] (REQUEST)
r 0.103276591 _35_ RTR  --- 0 AODV 48 [0 ffffffff 40 800] ------- [64:255 -1:255 29 0] [0x2 2 1 [11 0] [23 4]] (REQUEST)
s 0.103334604 _55_ RTR  --- 0 AODV 48 [0 ffffffff 17 800] ------- [55:255 -1:255 29 0] [0x2 2 1 [11 0] [23 4]] (REQUEST)
s 0.103401485 _38_ RTR  --- 0 AODV 48 [0 ffffffff 17 800] ------- [38:255 -1:255 29 0] [0x2 2 1 [11 0] [23 4]] (REQUEST)
s 0.103569967 _6_ RTR  --- 0 AODV 48 [0 ffffffff 17 800] ------- [6:255 -1:255 29 0] [0x2 2 1 [11 0] [23 4]] (REQUEST)
s 0.103616599 _50_ RTR  --- 0 AODV 48 [0 ffffffff 9 800] ------- [50:255 -1:255 28 0] [0x2 3 1 [11 0] [23 4]] (REQUEST)
s 0.104079432 _17_ RTR  --- 0 AODV 48 [0 ffffffff 17 800] ------- [17:255 -1:255 29 0] [0x2 2 1 [11 0] [23 4]] (REQUEST)
s 0.104118072 _34_ RTR  --- 0 AODV 48 [0 ffffffff 17 800] ------- [34:255 -1:255 29 0] [0x2 2 1 [11 0] [23 4]] (REQUEST)
r 0.104212559 _47_ RTR  --- 0 AODV 48 [0 ffffffff 1d 800] ------- [29:255 -1:255 28 0] [0x2 3 1 [11 0] [23 4]] (REQUEST)
r 0.104212596 _26_ RTR  --- 0 AODV 48 [0 ffffffff 1d 800] ------- [29:255 -1:255 28 0] [0x2 3 1 [11 0] [23 4]] (REQUEST)
r 0.104212734 _50_ RTR  --- 0 AODV 48 [0 ffffffff 1d 800] ------- [29:255 -1:255 28 0] [0x2 3 1 [11 0] [23 4]] (REQUEST)
r 0.104212807 _58_ RTR  --- 0 AODV 48 [0 ffffffff 1d 800] ------- [29:255 -1:255 28 0] [0x2 3 1 [11 0] [23 4]] (REQUEST)
r 0.104212892 _19_ RTR  --- 0 AODV 48 [0 ffffffff 1d 800] ------- [29:255 -1:255 28 0] [0x2 3 1 [11 0] [23 4]] (REQUEST)
r 0.104212896 _69_ RTR  --- 0 AODV 48 [0 ffffffff 1d 800] ------- [29:255 -1:255 28 0] [0x2 3 1 [11 0] [23 4]] (REQUEST)
r 0.104213188 _5_ RTR  --- 0 AODV 48 [0 ffffffff 1d 800] ------- [29:255 -1:255 28 0] [0x2 3 1 [11 0] [23 4]] (REQUEST)
r 0.104213231 _54_ RTR  --- 0 AODV 48 [0 ffffffff 1d 800] ------- [29:255 -1:255 28 0] [0x2 3 1 [11 0] [23 4]] (REQUEST)
r 0.104213242 _67_ RTR  --- 0 AODV 48 [0 ffffffff 1d 800] ------- [29:255 -1:255 28 0] [0x2 3 1 [11 0] [23 4]] (REQUEST)
r 0.104213249 _27_ RTR  --- 0 AODV 48 [0 ffffffff 1d 800] ------- [29:255 -1:255 28 0] [0x2 3 1 [11 0] [23 4]] (REQUEST)
r 0.104213300 _33_ RTR  --- 0 AODV 48 [0 ffffffff 1d 800] ------- [29:255 -1:255 28 0] [0x2 3 1 [11 0] [23 4]] (REQUEST)
r 0.104213339 _20_ RTR  --- 0 AODV 48 [0 ffffffff 1d 800] ------- [29:255 -1:255 28 0] [0x2 3 1 [11 0] [23 4]] (REQUEST)
r 0.104213382 _14_ RTR  --- 0 AODV 48 [0 ffffffff 1d 800] ------- [29:255 -1:255 28 0] [0x2 3 1 [11 0] [23 4]] (REQUEST)
r 0.104213787 _22_ RTR  --- 0 AODV 48 [0 ffffffff 1d 800] ------- [29:255 -1:255 28 0] [0x2 3 1 [11 0] [23 4]] (REQUEST)
r 0.104213910 _48_ RTR  --- 0 AODV 48 [0 ffffffff 1d 800] ------- [29:255 -1:255 28 0] [0x2 3 1 [11 0] [23 4]] (REQUEST)
r 0.104213914 _9_ RTR  --- 0 AODV 48 [0 ffffffff 1d 800] ------- [29:255 -1:255 28 0] [0x2 3 1 [11 0] [23 4]] (REQUEST)
r 0.104213954 _34_ RTR  --- 0 AODV 48 [0 ffffffff 1d 800] ------- [29:255 -1:255 28 0] [0x2 3 1 [11 0] [23 4]] (REQUEST)
r 0.104214036 _28_ RTR  --- 0 AODV 48 [0 ffffffff 1d 800] ------- [29:255 -1:255 28 0] [0x2 3 1 [11 0] [23 4]] (REQUEST)
r 0.104295019 _45_ RTR  --- 0 AODV 48 [0 ffffffff 23 800] ------- [35:255 -1:255 29 0] [0x2 2 1 [11 0] [23 4]] (REQUEST)
r 0.104295023 _43_ RTR  --- 0 AODV 48 [0 ffffffff 23 800] ------- [35:255 -1:255 29 0] [0x2 2 1 [11 0] [23 4]] (REQUEST)
r 0.104295080 _53_ RTR  --- 0 AODV 48 [0 ffffffff 23 800] ------- [35:255 -1:255 29 0] [0x2 2 1 [11 0] [23 4]] (REQUEST)
r 0.104295132 _59_ RTR  --- 0 AODV 48 [0 ffffffff 23 800] ------- [35:255 -1:255 29 0] [0x2 2 1 [11 0] [23 4]] (REQUEST)
r 0.104295215 _42_ RTR  --- 0 AODV 48 [0 ffffffff 23 800] ------- [35:255 -1:255 29 0] [0x2 2 1 [11 0] [23 4]] (REQUEST)
r 0.104295309 _16_ RTR  --- 0 AODV 48 [0 ffffffff 23 800] ------- [35:255 -1:255 29 0] [0x2 2 1 [11 0] [23 4]] (REQUEST)
r 0.104295331 _18_ RTR  --- 0 AODV 48 [0 ffffffff 23 800] ------- [35:255 -1:255 29 0] [0x2 2 1 [11 0] [23 4]] (REQUEST)
r 0.104295337 _31_ RTR  --- 0 AODV 48 [0 ffffffff 23 800] ------- [35:255 -1:255 29 0] [0x2 2 1 [11 0] [23 4]] (REQUEST)
r 0.104295401 _51_ RTR  --- 0 AODV 48 [0 ffffffff 23 800] ------- [35:255 -1:255 29 0] [0x2 2 1 [11 0] [23 4]] (REQUEST)
r 0.104295586 _65_ RTR  --- 0 AODV 48 [0 ffffffff 23 800] ------- [35:255 -1:255 29 0] [0x2 2 1 [11 0] [23 4]] (REQUEST)
r 0.104295586 _40_ RTR  --- 0 AODV 48 [0 ffffffff 23 800] ------- [35:255 -1:255 29 0] [0x2 2 1 [11 0] [23 4]] (REQUEST)
r 0.104295661 _30_ RTR  --- 0 AODV 48 [0 ffffffff 23 800] ------- [35:255 -1:255 29 0] [0x2 2 1 [11 0] [23 4]] (REQUEST)
r 0.104295789 _36_ RTR  --- 0 AODV 48 [0 ffffffff 23 800] ------- [35:255 -1:255 29 0] [0x2 2 1 [11 0] [23 4]] (REQUEST)
r 0.104295812 _15_ RTR  --- 0 AODV 48 [0 ffffffff 23 800] ------- [35:255 -1:255 29 0] [0x2 2 1 [11 0] [23 4]] (REQUEST)
r 0.104295928 _6_ RTR  --- 0 AODV 48 [0 ffffffff 23 800] ------- [35:255 -1:255 29 0] [0x2 2 1 [11 0] [23 4]] (REQUEST)
r 0.104296035 _52_ RTR  --- 0 AODV 48 [0 ffffffff 23 800] ------- [35:255 -1:255 29 0] [0x2 2 1 [11 0] [23 4]] (REQUEST)
r 0.104296060 _49_ RTR  --- 0 AODV 48 [0 ffffffff 23 800] ------- [35:255 -1:255 29 0] [0x2 2 1 [11 0] [23 4]] (REQUEST)
r 0.104296171 _68_ RTR  --- 0 AODV 48 [0 ffffffff 23 800] ------- [35:255 -1:255 29 0] [0x2 2 1 [11 0] [23 4]] (REQUEST)
s 0.104296960 _42_ RTR  --- 0 AODV 48 [0 ffffffff 23 800] ------- [42:255 -1:255 28 0] [0x2 3 1 [11 0] [23 4]] (REQUEST)
s 0.104476496 _18_ RTR  --- 0 AODV 48 [0 ffffffff 17 800] ------- [18:255 -1:255 29 0] [0x2 2 1 [11 0] [23 4]] (REQUEST)
s 0.104489900 _32_ RTR  --- 0 AODV 48 [0 ffffffff 9 800] ------- [32:255 -1:255 28 0] [0x2 3 1 [11 0] [23 4]] (REQUEST)
r 0.104558720 _13_ RTR  --- 0 AODV 48 [0 ffffffff 2e 800] ------- [46:255 -1:255 29 0] [0x2 2 1 [11 0] [23 4]] (REQUEST)
r 0.104558899 _37_ RTR  --- 0 AODV 48 [0 ffffffff 2e 800] ------- [46:255 -1:255 29 0] [0x2 2 1 [11 0] [23 4]] (REQUEST)
r 0.104559114 _7_ RTR  --- 0 AODV 48 [0 ffffffff 2e 800] ------- [46:255 -1:255 29 0] [0x2 2 1 [11 0] [23 4]] (REQUEST)
s 0.104564368 _63_ RTR  --- 0 AODV 48 [0 ffffffff 9 800] ------- [63:255 -1:255 28 0] [0x2 3 1 [11 0] [23 4]] (REQUEST)
s 0.104624095 _68_ RTR  --- 0 AODV 48 [0 ffffffff 23 800] ------- [68:255 -1:255 28 0] [0x2 3 1 [11 0] [23 4]] (REQUEST)
s 0.104769695 _54_ RTR  --- 0 AODV 48 [0 ffffffff 9 800] ------- [54:255 -1:255 28 0] [0x2 3 1 [11 0] [23 4]] (REQUEST)
s 0.105031457 _61_ RTR  --- 0 AODV 48 [0 ffffffff 17 800] ------- [61:255 -1:255 29 0] [0x2 2 1 [11 0] [23 4]] (REQUEST)
s 0.105044513 _20_ RTR  --- 0 AODV 48 [0 ffffffff 17 800] ------- [20:255 -1:255 29 0] [0x2 2 1 [11 0] [23 4]] (REQUEST)
s 0.105075962 _5_ RTR  --- 0 AODV 48 [0 ffffffff 17 800] ------- [5:255 -1:255 29 0] [0x2 2 1 [11 0] [23 4]] (REQUEST)
s 0.105129700 _51_ RTR  --- 0 AODV 48 [0 ffffffff 23 800] ------- [51:255 -1:255 28 0] [0x2 3 1 [11 0] [23 4]] (REQUEST)
s 0.105225513 _3_ RTR  --- 0 AODV 48 [0 ffffffff 17 800] ------- [3:255 -1:255 29 0] [0x2 2 1 [11 0] [23 4]] (REQUEST)
r 0.105272266 _3_ RTR  --- 0 AODV 48 [0 ffffffff 1c 800] ------- [28:255 -1:255 29 0] [0x2 2 1 [11 0] [23 4]] (REQUEST)
r 0.105272422 _48_ RTR  --- 0 AODV 48 [0 ffffffff 1c 800] ------- [28:255 -1:255 29 0] [0x2 2 1 [11 0] [23 4]] (REQUEST)
r 0.105272433 _34_ RTR  --- 0 AODV 48 [0 ffffffff 1c 800] ------- [28:255 -1:255 29 0] [0x2 2 1 [11 0] [23 4]] (REQUEST)
r 0.105272522 _22_ RTR  --- 0 AODV 48 [0 ffffffff 1c 800] ------- [28:255 -1:255 29 0] [0x2 2 1 [11 0] [23 4]] (REQUEST)
r 0.105272673 _39_ RTR  --- 0 AODV 48 [0 ffffffff 1c 800] ------- [28:255 -1:255 29 0] [0x2 2 1 [11 0] [23 4]] (REQUEST)
r 0.105272763 _61_ RTR  --- 0 AODV 48 [0 ffffffff 1c 800] ------- [28:255 -1:255 29 0] [0x2 2 1 [11 0] [23 4]] (REQUEST)
r 0.105272786 _14_ RTR  --- 0 AODV 48 [0 ffffffff 1c 800] ------- [28:255 -1:255 29 0] [0x2 2 1 [11 0] [23 4]] (REQUEST)
r 0.105272821 _20_ RTR  --- 0 AODV 48 [0 ffffffff 1c 800] ------- [28:255 -1:255 29 0] [0x2 2 1 [11 0] [23 4]] (REQUEST)
r 0.105272854 _25_ RTR  --- 0 AODV 48 [0 ffffffff 1c 800] ------- [28:255 -1:255 29 0] [0x2 2 1 [11 0] [23 4]] (REQUEST)
r 0.105272877 _67_ RTR  --- 0 AODV 48 [0 ffffffff 1c 800] ------- [28:255 -1:255 29 0] [0x2 2 1 [11 0] [23 4]] (REQUEST)
r 0.105272880 _27_ RTR  --- 0 AODV 48 [0 ffffffff 1c 800] ------- [28:255 -1:255 29 0] [0x2 2 1 [11 0] [23 4]] (REQUEST)
r 0.105272883 _9_ RTR  --- 0 AODV 48 [0 ffffffff 1c 800] ------- [28:255 -1:255 29 0] [0x2 2 1 [11 0] [23 4]] (REQUEST)
r 0.105272927 _5_ RTR  --- 0 AODV 48 [0 ffffffff 1c 800] ------- [28:255 -1:255 29 0] [0x2 2 1 [11 0] [23 4]] (REQUEST)
r 0.105273006 _66_ RTR  --- 0 AODV 48 [0 ffffffff 1c 800] ------- [28:255 -1:255 29 0] [0x2 2 1 [11 0] [23 4]] (REQUEST)
r 0.105273113 _56_ RTR  --- 0 AODV 48 [0 ffffffff 1c 800] ------- [28:255 -1:255 29 0] [0x2 2 1 [11 0] [23 4]] (REQUEST)
r 0.105273122 _21_ RTR  --- 0 AODV 48 [0 ffffffff 1c 800] ------- [28:255 -1:255 29 0] [0x2 2 1 [11 0] [23 4]] (REQUEST)
r 0.105273181 _54_ RTR  --- 0 AODV 48 [0 ffffffff 1c 800] ------- [28:255 -1:255 29 0] [0x2 2 1 [11 0] [23 4]] (REQUEST)
r 0.105273189 _60_ RTR  --- 0 AODV 48 [0 ffffffff 1c 800] ------- [28:255 -1:255 29 0] [0x2 2 1 [11 0] [23 4]] (REQUEST)
r 0.105273346 _0_ RTR  --- 0 AODV 48 [0 ffffffff 1c 800] ------- [28:255 -1:255 29 0] [0x2 2 1 [11 0] [23 4]] (REQUEST)
r 0.105273351 _63_ RTR  --- 0 AODV 48 [0 ffffffff 1c 800] ------- [28:255 -1:255 29 0] [0x2 2 1 [11 0] [23 4]] (REQUEST)
r 0.105273427 _33_ RTR  --- 0 AODV 48 [0 ffffffff 1c 800] ------- [28:255 -1:255 29 0] [0x2 2 1 [11 0] [23 4]] (REQUEST)
r 0.105273497 _57_ RTR  --- 0 AODV 48 [0 ffffffff 1c 800] ------- [28:255 -1:255 29 0] [0x2 2 1 [11 0] [23 4]] (REQUEST)
r 0.105273530 _24_ RTR  --- 0 AODV 48 [0 ffffffff 1c 800] ------- [28:255 -1:255 29 0] [0x2 2 1 [11 0] [23 4]] (REQUEST)
r 0.105273569 _26_ RTR  --- 0 AODV 48 [0 ffffffff 1c 800] ------- [28:255 -1:255 29 0] [0x2 2 1 [11 0] [23 4]] (REQUEST)
r 0.105273595 _32_ RTR  --- 0 AODV 48 [0 ffffffff 1c 800] ------- [28:255 -1:255 29 0] [0x2 2 1 [11 0] [23 4]] (REQUEST)
r 0.105273627 _29_ RTR  --- 0 AODV 48 [0 ffffffff 1c 800] ------- [28:255 -1:255 29 0] [0x2 2 1 [11 0] [23 4]] (REQUEST)
r 0.105273653 _12_ RTR  --- 0 AODV 48 [0 ffffffff 1c 800] ------- [28:255 -1:255 29 0] [0x2 2 1 [11 0] [23 4]] (REQUEST)
r 0.105273702 _50_ RTR  --- 0 AODV 48 [0 ffffffff 1c 800] ------- [28:255 -1:255 29 0] [0x2 2 1 [11 0] [23 4]] (REQUEST)
r 0.105365071 _59_ RTR  --- 0 AODV 48 [0 ffffffff 2a 800] ------- [42:255 -1:255 28 0] [0x2 3 1 [11 0] [23 4]] (REQUEST)
r 0.105365379 _51_ RTR  --- 0 AODV 48 [0 ffffffff 2a 800] ------- [42:255 -1:255 28 0] [0x2 3 1 [11 0] [23 4]] (REQUEST)
r 0.105365450 _45_ RTR  --- 0 AODV 48 [0 ffffffff 2a 800] ------- [42:255 -1:255 28 0] [0x2 3 1 [11 0] [23 4]] (REQUEST)
r 0.105365584 _35_ RTR  --- 0 AODV 48 [0 ffffffff 2a 800] ------- [42:255 -1:255 28 0] [0x2 3 1 [11 0] [23 4]] (REQUEST)
r 0.105365646 _40_ RTR  --- 0 AODV 48 [0 ffffffff 2a 800] ------- [42:255 -1:255 28 0] [0x2 3 1 [11 0] [23 4]] (REQUEST)
r 0.105365681 _30_ RTR  --- 0 AODV 48 [0 ffffffff 2a 800] ------- [42:255 -1:255 28 0] [0x2 3 1 [11 0] [23 4]] (REQUEST)
s 0.105399939 _4_ RTR  --- 0 AODV 48 [0 ffffffff 17 800] ------- [4:255 -1:255 29 0] [0x2 2 1 [11 0] [23 4]] (REQUEST)
s 0.105650294 _53_ RTR  --- 0 AODV 48 [0 ffffffff 17 800] ------- [53:255 -1:255 29 0] [0x2 2 1 [11 0] [23 4]] (REQUEST)
s 0.105712480 _26_ RTR  --- 0 AODV 48 [0 ffffffff 1d 800] ------- [26:255 -1:255 27 0] [0x2 4 1 [11 0] [23 4]] (REQUEST)
r 0.105901571 _62_ RTR  --- 0 AODV 48 [0 ffffffff 1 800] ------- [1:255 -1:255 29 0] [0x2 2 1 [11 0] [23 4]] (REQUEST)
r 0.105902047 _13_ RTR  --- 0 AODV 48 [0 ffffffff 1 800] ------- [1:255 -1:255 29 0] [0x2 2 1 [11 0] [23 4]] (REQUEST)
r 0.105902060 _37_ RTR  --- 0 AODV 48 [0 ffffffff 1 800] ------- [1:255 -1:255 29 0] [0x2 2 1 [11 0] [23 4]] (REQUEST)
r 0.105902329 _46_ RTR  --- 0 AODV 48 [0 ffffffff 1 800] ------- [1:255 -1:255 29 0] [0x2 2 1 [11 0] [23 4]] (REQUEST)
s 0.105975151 _56_ RTR  --- 0 AODV 48 [0 ffffffff 9 800] ------- [56:255 -1:255 28 0] [0x2 3 1 [11 0] [23 4]] (REQUEST)
s 0.106175612 _62_ RTR  --- 0 AODV 48 [0 ffffffff 17 800] ------- [62:255 -1:255 29 0] [0x2 2 1 [11 0] [23 4]] (REQUEST)
r 0.106211678 _38_ RTR  --- 0 AODV 48 [0 ffffffff 21 800] ------- [33:255 -1:255 29 0] [0x2 2 1 [11 0] [23 4]] (REQUEST)
r 0.106211962 _19_ RTR  --- 0 AODV 48 [0 ffffffff 21 800] ------- [33:255 -1:255 29 0] [0x2 2 1 [11 0] [23 4]] (REQUEST)
r 0.106212065 _5_ RTR  --- 0 AODV 48 [0 ffffffff 21 800] ------- [33:255 -1:255 29 0] [0x2 2 1 [11 0] [23 4]] (REQUEST)
r 0.106212068 _27_ RTR  --- 0 AODV 48 [0 ffffffff 21 800] ------- [33:255 -1:255 29 0] [0x2 2 1 [11 0] [23 4]] (REQUEST)
r 0.106212131 _26_ RTR  --- 0 AODV 48 [0 ffffffff 21 800] ------- [33:255 -1:255 29 0] [0x2 2 1 [11 0] [23 4]] (REQUEST)
r 0.106212282 _29_ RTR  --- 0 AODV 48 [0 ffffffff 21 800] ------- [33:255 -1:255 29 0] [0x2 2 1 [11 0] [23 4]] (REQUEST)
r 0.106212377 _47_ RTR  --- 0 AODV 48 [0 ffffffff 21 800] ------- [33:255 -1:255 29 0] [0x2 2 1 [11 0] [23 4]] (REQUEST)
r 0.106212536 _34_ RTR  --- 0 AODV 48 [0 ffffffff 21 800] ------- [33:255 -1:255 29 0] [0x2 2 1 [11 0] [23 4]] (REQUEST)
r 0.106212559 _50_ RTR  --- 0 AODV 48 [0 ffffffff 21 800] ------- [33:255 -1:255 29 0] [0x2 2 1 [11 0] [23 4]] (REQUEST)
r 0.106212640 _58_ RTR  --- 0 AODV 48 [0 ffffffff 21 800] ------- [33:255 -1:255 29 0] [0x2 2 1 [11 0] [23 4]] (REQUEST)
r 0.106212662 _69_ RTR  --- 0 AODV 48 [0 ffffffff 21 800] ------- [33:255 -1:255 29 0] [0x2 2 1 [11 0] [23 4]] (REQUEST)
r 0.106311603 _56_ RTR  --- 0 AODV 48 [0 ffffffff 3f 800] ------- [63:255 -1:255 28 0] [0x2 3 1 [11 0] [23 4]] (REQUEST)
r 0.106311665 _60_ RTR  --- 0 AODV 48 [0 ffffffff 3f 800] ------- [63:255 -1:255 28 0] [0x2 3 1 [11 0] [23 4]] (REQUEST)
r 0.106311717 _21_ RTR  --- 0 AODV 48 [0 ffffffff 3f 800] ------- [63:255 -1:255 28 0] [0x2 3 1 [11 0] [23 4]] (REQUEST)
r 0.106311798 _32_ RTR  --- 0 AODV 48 [0 ffffffff 3f 800] ------- [63:255 -1:255 28 0] [0x2 3 1 [11 0] [23 4]] (REQUEST)
r 0.106311893 _66_ RTR  --- 0 AODV 48 [0 ffffffff 3f 800] ------- [63:255 -1:255 28 0] [0x2 3 1 [11 0] [23 4]] (REQUEST)
r 0.106311934 _9_ RTR  --- 0 AODV 48 [0 ffffffff 3f 800] ------- [63:255 -1:255 28 0] [0x2 3 1 [11 0] [23 4]] (REQUEST)
r 0.106311938 _0_ RTR  --- 0 AODV 48 [0 ffffffff 3f 800] ------- [63:255 -1:255 28 0] [0x2 3 1 [11 0] [23 4]] (REQUEST)
r 0.106312304 _57_ RTR  --- 0 AODV 48 [0 ffffffff 3f 800] ------- [63:255 -1:255 28 0] [0x2 3 1 [11 0] [23 4]] (REQUEST)
r 0.106312353 _41_ RTR  --- 0 AODV 48 [0 ffffffff 3f 800] ------- [63:255 -1:255 28 0] [0x2 3 1 [11 0] [23 4]] (REQUEST)
r 0.106312368 _61_ RTR  --- 0 AODV 48 [0 ffffffff 3f 800] ------- [63:255 -1:255 28 0] [0x2 3 1 [11 0] [23 4]] (REQUEST)
r 0.106423646 _40_ RTR  --- 0 AODV 48 [0 ffffffff 33 800] ------- [51:255 -1:255 28 0] [0x2 3 1 [11 0] [23 4]] (REQUEST)
r 0.106423685 _30_ RTR  --- 0 AODV 48 [0 ffffffff 33 800] ------- [51:255 -1:255 28 0] [0x2 3 1 [11 0] [23 4]] (REQUEST)
r 0.106423798 _42_ RTR  --- 0 AODV 48 [0 ffffffff 33 800] ------- [51:255 -1:255 28 0] [0x2 3 1 [11 0] [23 4]] (REQUEST)
r 0.106423817 _45_ RTR  --- 0 AODV 48 [0 ffffffff 33 800] ------- [51:255 -1:255 28 0] [0x2 3 1 [11 0] [23 4]] (REQUEST)
r 0.106423885 _59_ RTR  --- 0 AODV 48 [0 ffffffff 33 800] ------- [51:255 -1:255 28 0] [0x2 3 1 [11 0] [23 4]] (REQUEST)
r 0.106424126 _49_ RTR  --- 0 AODV 48 [0 ffffffff 33 800] ------- [51:255 -1:255 28 0] [0x2 3 1 [11 0] [23 4]] (REQUEST)
r 0.106424238 _68_ RTR  --- 0 AODV 48 [0 ffffffff 33 800] ------- [51:255 -1:255 28 0] [0x2 3 1 [11 0] [23 4]] (REQUEST)
r 0.107183812 _1_ RTR  --- 0 AODV 48 [0 ffffffff 3e 800] ------- [62:255 -1:255 29 0] [0x2 2 1 [11 0] [23 4]] (REQUEST)
r 0.107184140 _31_ RTR  --- 0 AODV 48 [0 ffffffff 3e 800] ------- [62:255 -1:255 29 0] [0x2 2 1 [11 0] [23 4]] (REQUEST)
r 0.107184149 _10_ RTR  --- 0 AODV 48 [0 ffffffff 3e 800] ------- [62:255 -1:255 29 0] [0x2 2 1 [11 0] [23 4]] (REQUEST)
r 0.107184237 _17_ RTR  --- 0 AODV 48 [0 ffffffff 3e 800] ------- [62:255 -1:255 29 0] [0x2 2 1 [11 0] [23 4]] (REQUEST)
r 0.107184373 _13_ RTR  --- 0 AODV 48 [0 ffffffff 3e 800] ------- [62:255 -1:255 29 0] [0x2 2 1 [11 0] [23 4]] (REQUEST)
r 0.107184395 _2_ RTR  --- 0 AODV 48 [0 ffffffff 3e 800] ------- [62:255 -1:255 29 0] [0x2 2 1 [11 0] [23 4]] (REQUEST)
r 0.107184473 _37_ RTR  --- 0 AODV 48 [0 ffffffff 3e 800] ------- [62:255 -1:255 29 0] [0x2 2 1 [11 0] [23 4]] (REQUEST)
r 0.107184552 _4_ RTR  --- 0 AODV 48 [0 ffffffff 3e 800] ------- [62:255 -1:255 29 0] [0x2 2 1 [11 0] [23 4]] (REQUEST)
r 0.107184669 _64_ RTR  --- 0 AODV 48 [0 ffffffff 3e 800] ------- [62:255 -1:255 29 0] [0x2 2 1 [11 0] [23 4]] (REQUEST)
r 0.107184674 _46_ RTR  --- 0 AODV 48 [0 ffffffff 3e 800] ------- [62:255 -1:255 29 0] [0x2 2 1 [11 0] [23 4]] (REQUEST)
r 0.107184685 _11_ RTR  --- 0 AODV 48 [0 ffffffff 3e 800] ------- [62:255 -1:255 29 0] [0x2 2 1 [11 0] [23 4]] (REQUEST)
r 0.107184737 _23_ RTR  --- 0 AODV 48 [0 ffffffff 3e 800] ------- [62:255 -1:255 29 0] [0x2 2 1 [11 0] [23 4]] (REQUEST)
r 0.107184898 _7_ RTR  --- 0 AODV 48 [0 ffffffff 3e 800] ------- [62:255 -1:255 29 0] [0x2 2 1 [11 0] [23 4]] (REQUEST)
r 0.107184912 _44_ RTR  --- 0 AODV 48 [0 ffffffff 3e 800] ------- [62:255 -1:255 29 0] [0x2 2 1 [11 0] [23 4]] (REQUEST)
r 0.107184964 _55_ RTR  --- 0 AODV 48 [0 ffffffff 3e 800] ------- [62:255 -1:255 29 0] [0x2 2 1 [11 0] [23 4]] (REQUEST)
r 0.107229855 _63_ RTR  --- 0 AODV 48 [0 ffffffff 38 800] ------- [56:255 -1:255 28 0] [0x2 3 1 [11 0] [23 4]] (REQUEST)
r 0.107229932 _60_ RTR  --- 0 AODV 48 [0 ffffffff 38 800] ------- [56:255 -1:255 28 0] [0x2 3 1 [11 0] [23 4]] (REQUEST)
r 0.107229936 _21_ RTR  --- 0 AODV 48 [0 ffffffff 38 800] ------- [56:255 -1:255 28 0] [0x2 3 1 [11 0] [23 4]] (REQUEST)
r 0.107229942 _9_ RTR  --- 0 AODV 48 [0 ffffffff 38 800] ------- [56:255 -1:255 28 0] [0x2 3 1 [11 0] [23 4]] (REQUEST)
r 0.107230063 _66_ RTR  --- 0 AODV 48 [0 ffffffff 38 800] ------- [56:255 -1:255 28 0] [0x2 3 1 [11 0] [23 4]] (REQUEST)
r 0.107230248 _32_ RTR  --- 0 AODV 48 [0 ffffffff 38 800] ------- [56:255 -1:255 28 0] [0x2 3 1 [11 0] [23 4]] (REQUEST)
r 0.107230257 _0_ RTR  --- 0 AODV 48 [0 ffffffff 38 800] ------- [56:255 -1:255 28 0] [0x2 3 1 [11 0] [23 4]] (REQUEST)
r 0.107230301 _22_ RTR  --- 0 AODV 48 [0 ffffffff 38 800] ------- [56:255 -1:255 28 0] [0x2 3 1 [11 0] [23 4]] (REQUEST)
s 0.107377281 _10_ RTR  --- 0 AODV 48 [0 ffffffff 17 800] ------- [10:255 -1:255 29 0] [0x2 2 1 [11 0] [23 4]] (REQUEST)
s 0.107389426 _8_ RTR  --- 0 AODV 48 [0 ffffffff 17 800] ------- [8:255 -1:255 29 0] [0x2 2 1 [11 0] [23 4]] (REQUEST)
r 0.107510736 _58_ RTR  --- 0 AODV 48 [0 ffffffff 32 800] ------- [50:255 -1:255 28 0] [0x2 3 1 [11 0] [23 4]] (REQUEST)
r 0.107510802 _47_ RTR  --- 0 AODV 48 [0 ffffffff 32 800] ------- [50:255 -1:255 28 0] [0x2 3 1 [11 0] [23 4]] (REQUEST)
r 0.107510848 _29_ RTR  --- 0 AODV 48 [0 ffffffff 32 800] ------- [50:255 -1:255 28 0] [0x2 3 1 [11 0] [23 4]] (REQUEST)
r 0.107510951 _69_ RTR  --- 0 AODV 48 [0 ffffffff 32 800] ------- [50:255 -1:255 28 0] [0x2 3 1 [11 0] [23 4]] (REQUEST)
r 0.107510996 _26_ RTR  --- 0 AODV 48 [0 ffffffff 32 800] ------- [50:255 -1:255 28 0] [0x2 3 1 [11 0] [23 4]] (REQUEST)
s 0.107617731 _40_ RTR  --- 0 AODV 48 [0 ffffffff 23 800] ------- [40:255 -1:255 28 0] [0x2 3 1 [11 0] [23 4]] (REQUEST)
s 0.107620279 _41_ RTR  --- 0 AODV 48 [0 ffffffff 9 800] ------- [41:255 -1:255 28 0] [0x2 3 1 [11 0] [23 4]] (REQUEST)
r 0.107682351 _49_ RTR  --- 0 AODV 48 [0 ffffffff 44 800] ------- [68:255 -1:255 28 0] [0x2 3 1 [11 0] [23 4]] (REQUEST)
r 0.107682791 _30_ RTR  --- 0 AODV 48 [0 ffffffff 44 800] ------- [68:255 -1:255 28 0] [0x2 3 1 [11 0] [23 4]] (REQUEST)
r 0.107682843 _40_ RTR  --- 0 AODV 48 [0 ffffffff 44 800] ------- [68:255 -1:255 28 0] [0x2 3 1 [11 0] [23 4]] (REQUEST)
r 0.107683097 _51_ RTR  --- 0 AODV 48 [0 ffffffff 44 800] ------- [68:255 -1:255 28 0] [0x2 3 1 [11 0] [23 4]] (REQUEST)
r 0.107683510 _42_ RTR  --- 0 AODV 48 [0 ffffffff 44 800] ------- [68:255 -1:255 28 0] [0x2 3 1 [11 0] [23 4]] (REQUEST)
r 0.107683602 _59_ RTR  --- 0 AODV 48 [0 ffffffff 44 800] ------- [68:255 -1:255 28 0] [0x2 3 1 [11 0] [23 4]] (REQUEST)
s 0.107762789 _7_ RTR  --- 0 AODV 48 [0 ffffffff 17 800] ------- [7:255 -1:255 29 0] [0x2 2 1 [11 0] [23 4]] (REQUEST)